#####################################################################
#
# Data is provided by the Chemical Database Service
# Database specific disclaimer will appear here......
#
#####################################################################
data_61067-ICSD
_journal_volume 42
_journal_page_first 4
_journal_name_full 'Acta Crystallogr., Sect. C: Cryst. Struct. Commun.'
_journal_year 1986
loop_
_publ_author_name
CSDAUTH
_chemical_formula_moiety
;
Ni (C O3)
;
_chemical_name_systematic
;
Nickel carbonate
;
_cell_length_a     4.612
_cell_length_b     4.612
_cell_length_c    14.735
_cell_angle_alpha    90.000
_cell_angle_beta    90.000
_cell_angle_gamma   120.000
_symmetry_Int_tables_number 167
loop_
_symmetry_equiv_pos_site_id
_symmetry_equiv_pos_as_xyz
  1 X,Y,Z
  2 1/3+X,2/3+Y,2/3+Z
  3 2/3+X,1/3+Y,1/3+Z
  4 X-Y,-Y,1/2-Z
  5 1/3+X-Y,2/3-Y,1/6-Z
  6 2/3+X-Y,1/3-Y,5/6-Z
  7 -Y,X-Y,Z
  8 1/3-Y,2/3+X-Y,2/3+Z
  9 2/3-Y,1/3+X-Y,1/3+Z
 10 X,X-Y,1/2+Z
 11 1/3+X,2/3+X-Y,1/6+Z
 12 2/3+X,1/3+X-Y,5/6+Z
 13 X-Y,X,-Z
 14 1/3+X-Y,2/3+X,2/3-Z
 15 2/3+X-Y,1/3+X,1/3-Z
 16 Y,X,1/2-Z
 17 1/3+Y,2/3+X,1/6-Z
 18 2/3+Y,1/3+X,5/6-Z
 19 -X,-Y,-Z
 20 1/3-X,2/3-Y,2/3-Z
 21 2/3-X,1/3-Y,1/3-Z
 22 -X+Y,Y,1/2+Z
 23 1/3-X+Y,2/3+Y,1/6+Z
 24 2/3-X+Y,1/3+Y,5/6+Z
 25 Y,-X+Y,-Z
 26 1/3+Y,2/3-X+Y,2/3-Z
 27 2/3+Y,1/3-X+Y,1/3-Z
 28 -X,-X+Y,1/2-Z
 29 1/3-X,2/3-X+Y,1/6-Z
 30 2/3-X,1/3-X+Y,5/6-Z
 31 -X+Y,-X,Z
 32 1/3-X+Y,2/3-X,2/3+Z
 33 2/3-X+Y,1/3-X,1/3+Z
 34 -Y,-X,1/2+Z
 35 1/3-Y,2/3-X,1/6+Z
 36 2/3-Y,1/3-X,5/6+Z
loop_
_atom_site_label
_atom_site_type_symbol
_atom_site_symmetry_multiplicity
_atom_site_fract_x
_atom_site_fract_y
_atom_site_fract_z
_atom_site_U_iso_or_equiv
_atom_site_occupancy
Ni1   NI   6   0.00000   0.00000   0.00000   0.00000   1.00000
C1    C    6   0.00000   0.00000   0.25000   0.00000   1.00000
O1    O   18   0.72010   0.72010   0.25000   0.00000   1.00000
loop_
_atom_site_aniso_label
_atom_site_aniso_type_symbol
_atom_site_aniso_U_11
_atom_site_aniso_U_22
_atom_site_aniso_U_33
_atom_site_aniso_U_12
_atom_site_aniso_U_13
_atom_site_aniso_U_23
Ni1   NI    0.00680   0.00680   0.00580   0.00340   0.00000   0.00000
C1    C     0.00740   0.00740   0.00390   0.00370   0.00000   0.00000
O1    O     0.00530   0.00530   0.00840   0.00160  -0.00080   0.00080
