###############################################################################
# Diehl, R.;Brandt, G. (1975)
# Acta Crystallographica B (24,1968-38,1982) 31, 1662-1665
# Refinement of the crystal structure of  Fe3 B O6
# 
# CIF by ICSD-for-WWW,  Copyright 2003 FIZ-Karlsruhe & A.W.Hewat (hewat@ill.fr)
# NOT TO BE PUBLISHED IN ANY FORM. See http://icsd.ill.fr/icsd/conditions.html
###############################################################################

data_1910-ICSD
_database_code_ICSD                1910
_audit_creation_date               1980-01-01
_chemical_name_systematic
'Iron(III) borate *'
_chemical_formula_structural       
'Fe3 B O6'
_chemical_formula_sum              
'B1 Fe3 O6'
_publ_section_title                
'B1 Fe3 O6'
loop_
_citation_id
_citation_journal_abbrev
_citation_year
_citation_journal_volume
_citation_page_first
_citation_page_last
_citation_journal_id_ASTM
primary 'Acta Crystallographica B (24,1968-38,1982)' 1975 31 1662 1665 ACBCAR
loop_
_publ_author_name
Diehl, R.;Brandt, G.
_cell_length_a                     10.048(2)
_cell_length_b                     8.531(2)
_cell_length_c                     4.466(1)
_cell_angle_alpha                  90.
_cell_angle_beta                   90.
_cell_angle_gamma                  90.
_cell_volume                       382.82
_cell_formula_units_Z              4
_symmetry_space_group_name_H-M     'P n m a'
_symmetry_Int_Tables_number        62
_refine_ls_R_factor_all            0.035000
loop_
_symmetry_equiv_pos_site_id
_symmetry_equiv_pos_as_xyz
 1 'x,y,z'
 2 '1/2+x,1/2-y,1/2-z'
 3 'x,1/2-y,z'
 4 '1/2+x,y,1/2-z'
 5 '-x,-y,-z'
 6 '1/2-x,1/2+y,1/2+z'
 7 '-x,1/2+y,-z'
 8 '1/2-x,-y,1/2+z'
loop_
_atom_type_symbol
_atom_type_oxidation_number
Fe3+     3.
B3+     3.
O2-     -2.
loop_
_atom_site_label
_atom_site_type_symbol
_atom_site_symmetry_multiplicity
_atom_site_Wyckoff_symbol
_atom_site_fract_x
_atom_site_fract_y
_atom_site_fract_z
_atom_site_B_iso_or_equiv
_atom_site_occupancy
Fe1 Fe3+ 8 d 0.12835(4) 0.06466(5) 0.98047(9) 0. 1.
Fe2 Fe3+ 4 c 0.41246(6) 0.25 0.9749(1) 0. 1.
B1 B3+ 4 c 0.2177(4) 0.25 0.4106(9) 0. 1.
O1 O2- 8 d 0.2856(2) 0.1114(2) 0.2647(5) 0. 1.
O2 O2- 8 d 0.4654(2) 0.0823(2) 0.7351(5) 0. 1.
O3 O2- 4 c 0.0813(3) 0.25 0.2736(7) 0. 1.
O4 O2- 4 c 0.2186(3) 0.25 0.7333(7) 0. 1.
loop_
_atom_site_aniso_label
_atom_site_aniso_type_symbol
_atom_site_aniso_U_11
_atom_site_aniso_U_22
_atom_site_aniso_U_33
_atom_site_aniso_U_12
_atom_site_aniso_U_13
_atom_site_aniso_U_23
Fe1 Fe3+ 0.0051(2) 0.0049(2) 0.0057(2) -.0001(1) -.0001(1) -.0005(1)
Fe2 Fe3+ 0.0051(2) 0.0054(2) 0.0052(2) 0 0.0006(2) 0
B1 B3+ 0.0046(13) 0.0064(14) 0.0032(13) 0 -.0005(11) 0
O1 O2- 0.0056(7) 0.0045(6) 0.0054(7) 0.0010(6) -.0002(6) 0.0001(6)
O2 O2- 0.0061(7) 0.0059(7) 0.0061(7) 0.0003(6) 0.0003(6) -.0022(6)
O3 O2- 0.0043(9) 0.0058(10) 0.0053(10) 0 -.0008(8) 0
O4 O2- 0.0073(10) 0.0056(10) 0.0042(10) 0 -.0004(8) 0
#End of data_1910-ICSD
