###############################################################################
# Sawada, H. (1997)
# Journal of Solid State Chemistry 132, 300-307
# Electron density study of garnets: Z3 Ga5 O12; Z = Nd, Sm, Gd, Tb
# 
# CIF by ICSD-for-WWW,  Copyright 2003 FIZ-Karlsruhe & A.W.Hewat (hewat@ill.fr)
# NOT TO BE PUBLISHED IN ANY FORM. See http://icsd.ill.fr/icsd/conditions.html
###############################################################################

data_84874-ICSD
_database_code_ICSD                84874
_audit_creation_date               1999-01-19
_chemical_name_systematic
'Trigadolinium pentagallium oxide'
_chemical_formula_structural       
'Gd3 Ga5 O12'
_chemical_formula_sum              
'Ga5 Gd3 O12'
_publ_section_title                
'Ga5 Gd3 O12'
loop_
_citation_id
_citation_journal_abbrev
_citation_year
_citation_journal_volume
_citation_page_first
_citation_page_last
_citation_journal_id_ASTM
primary 'Journal of Solid State Chemistry' 1997 132 300 307 JSSCBI
loop_
_publ_author_name
Sawada, H.
_cell_length_a                     12.3829(5)
_cell_length_b                     12.3829(5)
_cell_length_c                     12.3829(5)
_cell_angle_alpha                  90.
_cell_angle_beta                   90.
_cell_angle_gamma                  90.
_cell_volume                       1898.7502
_cell_formula_units_Z              8
_symmetry_space_group_name_H-M     'I a -3 d'
_symmetry_Int_Tables_number        230
_refine_ls_R_factor_all            0.0181
loop_
_symmetry_equiv_pos_site_id
_symmetry_equiv_pos_as_xyz
 1 'x,y,z'
 2 '1/2+x,1/2+y,1/2+z'
 3 'x,-y,1/2-z'
 4 '1/2+x,1/2-y,-z'
 5 'x,1/2-y,1/2+z'
 6 '1/2+x,-y,z'
 7 '1/4-z,3/4-y,3/4+x'
 8 '3/4-z,1/4-y,1/4+x'
 9 '1/4+z,1/4-y,3/4+x'
 10 '3/4+z,3/4-y,1/4+x'
 11 '1/4-y,1/4+x,3/4-z'
 12 '3/4-y,3/4+x,1/4-z'
 13 '1/4-y,3/4+x,1/4+z'
 14 '3/4-y,1/4+x,3/4+z'
 15 '-y,1/2-z,x'
 16 '1/2-y,-z,1/2+x'
 17 '-y,z,1/2+x'
 18 '1/2-y,1/2+z,x'
 19 '1/4+x,3/4-z,1/4-y'
 20 '3/4+x,1/4-z,3/4-y'
 21 '1/4+x,1/4-z,3/4+y'
 22 '3/4+x,3/4-z,1/4+y'
 23 '1/4+x,3/4+z,3/4-y'
 24 '3/4+x,1/4+z,1/4-y'
 25 '1/4+x,1/4+z,1/4+y'
 26 '3/4+x,3/4+z,3/4+y'
 27 '-z,1/2+x,1/2-y'
 28 '1/2-z,x,-y'
 29 '-z,x,1/2+y'
 30 '1/2-z,1/2+x,y'
 31 'z,1/2+x,-y'
 32 '1/2+z,x,1/2-y'
 33 'z,x,y'
 34 '1/2+z,1/2+x,1/2+y'
 35 '1/4+y,3/4+x,3/4-z'
 36 '3/4+y,1/4+x,1/4-z'
 37 '1/4+y,1/4+x,1/4+z'
 38 '3/4+y,3/4+x,3/4+z'
 39 'y,1/2-z,1/2+x'
 40 '1/2+y,-z,x'
 41 'y,z,x'
 42 '1/2+y,1/2+z,1/2+x'
 43 'x,1/2+y,-z'
 44 '1/2+x,y,1/2-z'
 45 '1/4-z,3/4+y,1/4+x'
 46 '3/4-z,1/4+y,3/4+x'
 47 '1/4+z,1/4+y,1/4+x'
 48 '3/4+z,3/4+y,3/4+x'
 49 '-x,-y,-z'
 50 '1/2-x,1/2-y,1/2-z'
 51 '-x,y,1/2+z'
 52 '1/2-x,1/2+y,z'
 53 '-x,1/2+y,1/2-z'
 54 '1/2-x,y,-z'
 55 '3/4+z,1/4+y,1/4-x'
 56 '1/4+z,3/4+y,3/4-x'
 57 '3/4-z,3/4+y,1/4-x'
 58 '1/4-z,1/4+y,3/4-x'
 59 '3/4+y,3/4-x,1/4+z'
 60 '1/4+y,1/4-x,3/4+z'
 61 '3/4+y,1/4-x,3/4-z'
 62 '1/4+y,3/4-x,1/4-z'
 63 'y,1/2+z,-x'
 64 '1/2+y,z,1/2-x'
 65 'y,-z,1/2-x'
 66 '1/2+y,1/2-z,-x'
 67 '3/4-x,1/4+z,3/4+y'
 68 '1/4-x,3/4+z,1/4+y'
 69 '3/4-x,3/4+z,1/4-y'
 70 '1/4-x,1/4+z,3/4-y'
 71 '3/4-x,1/4-z,1/4+y'
 72 '1/4-x,3/4-z,3/4+y'
 73 '3/4-x,3/4-z,3/4-y'
 74 '1/4-x,1/4-z,1/4-y'
 75 'z,1/2-x,1/2+y'
 76 '1/2+z,-x,y'
 77 'z,-x,1/2-y'
 78 '1/2+z,1/2-x,-y'
 79 '-z,1/2-x,y'
 80 '1/2-z,-x,1/2+y'
 81 '-z,-x,-y'
 82 '1/2-z,1/2-x,1/2-y'
 83 '3/4-y,1/4-x,1/4+z'
 84 '1/4-y,3/4-x,3/4+z'
 85 '3/4-y,3/4-x,3/4-z'
 86 '1/4-y,1/4-x,1/4-z'
 87 '-y,1/2+z,1/2-x'
 88 '1/2-y,z,-x'
 89 '-y,-z,-x'
 90 '1/2-y,1/2-z,1/2-x'
 91 '-x,1/2-y,z'
 92 '1/2-x,-y,1/2+z'
 93 '3/4+z,1/4-y,3/4-x'
 94 '1/4+z,3/4-y,1/4-x'
 95 '3/4-z,3/4-y,3/4-x'
 96 '1/4-z,1/4-y,1/4-x'
loop_
_atom_type_symbol
_atom_type_oxidation_number
Gd3+     3.
Ga3+     3.
O2-     -2.
 loop_
_atom_site_label
_atom_site_type_symbol
_atom_site_symmetry_multiplicity
_atom_site_Wyckoff_symbol
_atom_site_fract_x
_atom_site_fract_y
_atom_site_fract_z
_atom_site_B_iso_or_equiv
_atom_site_occupancy
Gd1 Gd3+ 24 c 0.125 0 0.25 0. 1.
Ga1 Ga3+ 16 a 0 0 0 0. 1.
Ga2 Ga3+ 24 d 0.375 0 0.25 0. 1.
O1 O2- 96 h 0.0289(2) 0.0542(2) 0.6494(2) 0. 1.
#End of data_84874-ICSD

